<VTKFile type="PolyData" version="1.0" byte_order="LittleEndian" header_type="UInt64">
  <PolyData>
    <Piece NumberOfPoints="256" NumberOfVerts="0" NumberOfLines="0" NumberOfStrips="0" NumberOfPolys="225">
      <PointData>
        <DataArray type="Float32" Name="zvalue" NumberOfComponents="1" format="ascii" RangeMin="0.0" RangeMax="0.7387387387387387">
          0.13283208020050125 0.13283208020050125 0.13283208020050125 0.13283208020050125 0.13283208020050125 0.13283208020050125
          0.13283208020050125 0.13283208020050125 0.13283208020050125 0.13283208020050125 0.13283208020050125 0.13283208020050125
          0.13283208020050125 0.13283208020050125 0.13283208020050125 0.13283208020050125 0.17931034482758623 0.39382239382239376
          0.4672897196261682 0.5050505050505051 0.5405405405405406 0.5444444444444444 0.5632183908045977 0.5903614457831325
          0.6086956521739131 0.6114649681528663 0.6274509803921569 0.6357615894039735 0.6486486486486487 0.6573426573426574
          0.6617647058823528 0.6615384615384615 0.2212765957446809 0.5050505050505051 0.547486033519553 0.5697674418604651
          0.6086956521739131 0.6193548387096774 0.6357615894039735 0.6442953020134228 0.6527777777777779 0.6666666666666666
          0.6617647058823528 0.682170542635659 0.6666666666666667 0.6833333333333333 0.7008547008547009 0.706896551724138
          0.26130653266331655 0.547486033519553 0.593939393939394 0.6193548387096774 0.6357615894039735 0.6438356164383562
          0.6619718309859155 0.6666666666666667 0.6718750000000001 0.6666666666666667 0.6721311475409837 0.7008547008547009
          0.7008547008547009 0.719298245614035 0.7155963302752294 0.7169811320754716 0.29714285714285715 0.5764705882352941
          0.6274509803921569 0.6442953020134228 0.6619718309859155 0.6666666666666667 0.676923076923077 0.6666666666666667
          0.6721311475409837 0.6949152542372882 0.7008547008547009 0.719298245614035 0.7155963302752294 0.6981132075471698
          0.6990291262135921 0.6666666666666666 0.33015873015873015 0.6086956521739131 0.6442953020134228 0.6619718309859155
          0.6716417910447762 0.6614173228346457 0.6774193548387097 0.6833333333333333 0.7008547008547009 0.719298245614035
          0.7387387387387387 0.6981132075471698 0.6923076923076923 0.6732673267326733 0.6526315789473685 0.6190476190476191
          0.3598615916955017 0.6315789473684211 0.6619718309859155 0.6818181818181819 0.6614173228346457 0.6666666666666666
          0.6949152542372882 0.7008547008547009 0.7321428571428573 0.6915887850467289 0.7047619047619047 0.6862745098039216
          0.66 0.6373626373626373 0.6190476190476191 0.5822784810126581 0.3952569169960474 0.6351351351351352
          0.6666666666666667 0.65625 0.6666666666666666 0.6949152542372882 0.706896551724138 0.7155963302752294
          0.6981132075471698 0.6923076923076923 0.6862745098039216 0.6804123711340205 0.6206896551724137 0.6265060240963856
          0.5822784810126581 0.5599999999999999 0.43478260869565216 0.647887323943662 0.6615384615384615 0.656
          0.6949152542372882 0.7130434782608696 0.7037037037037037 0.6981132075471698 0.6796116504854369 0.6868686868686867
          0.6595744680851064 0.611764705882353 0.5925925925925926 0.5897435897435898 0.5599999999999999 0.4571428571428572
          0.4651162790697674 0.6666666666666667 0.6614173228346457 0.6776859504132231 0.7130434782608696 0.7037037037037037
          0.6981132075471698 0.6862745098039216 0.673469387755102 0.6593406593406593 0.6097560975609757 0.6
          0.5974025974025975 0.5405405405405405 0.4571428571428572 0.41791044776119407 0.49504950495049505 0.6717557251908397
          0.6721311475409837 0.706896551724138 0.7037037037037037 0.6857142857142857 0.6862745098039216 0.6804123711340205
          0.611764705882353 0.5925925925925926 0.5822784810126581 0.5789473684210527 0.5205479452054794 0.4411764705882353
          0.393939393939394 0.34375000000000006 0.5376344086021505 0.6614173228346457 0.6949152542372882 0.6972477064220183
          0.6923076923076923 0.693069306930693 0.6875 0.6190476190476191 0.6 0.5822784810126581
          0.5405405405405405 0.5205479452054794 0.41791044776119407 0.36923076923076925 0.34375000000000006 0.2903225806451613
          0.5494505494505495 0.6612903225806451 0.6902654867256638 0.6857142857142857 0.693069306930693 0.6739130434782609
          0.6352941176470588 0.5822784810126581 0.5641025641025641 0.5205479452054794 0.4571428571428572 0.393939393939394
          0.36923076923076925 0.34375000000000006 0.2903225806451613 0.2033898305084746 0.5681818181818181 0.6949152542372882
          0.7102803738317758 0.6862745098039216 0.6666666666666667 0.6097560975609757 0.5641025641025641 0.5135135135135135
          0.4999999999999999 0.4411764705882353 0.36923076923076925 0.36923076923076925 0.2903225806451613 0.23333333333333334
          0.1724137931034483 0.10714285714285715 0.593939393939394 0.6902654867256638 0.6862745098039216 0.6741573033707865
          0.5925925925925926 0.5641025641025641 0.5135135135135135 0.4788732394366197 0.36923076923076925 0.36923076923076925
          0.2903225806451613 0.2903225806451613 0.2033898305084746 0.14035087719298245 0.037037037037037035 0.037037037037037035
          0.5911949685534591 0.6857142857142857 0.7032967032967034 0.5750000000000001 0.5263157894736843 0.47222222222222215
          0.393939393939394 0.34375000000000006 0.3174603174603175 0.26229508196721313 0.23333333333333334 0.1724137931034483
          0.10714285714285715 0.037037037037037035 0.0 0.0 
        </DataArray>
      </PointData>
      <CellData>
        <DataArray type="Float32" Name="averaged zvalue" NumberOfComponents="1" format="ascii" RangeMin="0.018518518518518517" RangeMax="0.7142512231886611">
          0.2096992247627456 0.28169406846239115 0.3095010962694189 0.32781380149801204 0.33766228634649686 0.34333174891251117
          0.3548109992471832 0.36618031458951206 0.3714561951819455 0.37614502723650645 0.3822191825492832 0.3875185996134062
          0.39291386659807714 0.3961928809065032 0.3972418319554542 0.3248649598612915 0.47841216300465506 0.5223984250141729
          0.556013534906356 0.578258868967144 0.5906948158406733 0.6084091820012817 0.6240325444370616 0.634901266192806
          0.6418368302735107 0.6517869545785355 0.658311861838737 0.6639978264978266 0.6758238493532611 0.6827636049999133
          0.3837799167445139 0.5484904915072513 0.5826369270072724 0.6083948805370073 0.62691192418148 0.6402309688844806
          0.6521738472674947 0.6589036866144669 0.6644965277777779 0.6668072966891674 0.6792302742284242 0.687636652752932
          0.692538236617184 0.7047706525193247 0.710082178732385 0.4206015028902552 0.5863367490215995 0.6212601287636628
          0.6403458902782473 0.6520589258737279 0.6623492977535038 0.6680570603105815 0.6693348702185794 0.6763970171112347
          0.6836419423249099 0.6982846987161052 0.7091509943996666 0.7084656210727838 0.7080092274125065 0.6995683138077399
          0.4531169569276986 0.6142281307036968 0.6445033538512295 0.6599701887575075 0.6654244028830011 0.6706066053157749
          0.6760856079404467 0.6807464620989212 0.696799837061752 0.7134517348611907 0.7142512231886611 0.7063288689360316
          0.6948211392156912 0.6807603098602009 0.6593437477188117 0.4825737303491415 0.6366354331354181 0.6625142864508589
          0.6692122816708798 0.6652857758451836 0.6751046496443275 0.689130660816008 0.7042963980463981 0.7109711471645805
          0.7135969185403519 0.7069720902129337 0.6841738524146959 0.6657344141007507 0.6455772905225745 0.6182513245138161
          0.5054581477987764 0.6488381450390346 0.666676669867691 0.6665380428298735 0.6724164776013167 0.6908484317163452
          0.7045657092728391 0.7116767739549894 0.7035381355111121 0.6937332229800619 0.689430823875942 0.6618441340275889
          0.6361395791578592 0.616298690379825 0.5859011452682339 0.5282654961926242 0.6528068968209814 0.6601137820512821
          0.6684579802259887 0.6923851633505281 0.7046397469814999 0.7060774483125603 0.6978585989637515 0.6892253093022465
          0.6812563392663518 0.6595065137263504 0.6263648311953449 0.6073829654012454 0.5896320237131584 0.5398553345388788
          0.5536132195939371 0.6593774437458589 0.6641604336965826 0.6854111707278452 0.7061764786156828 0.7046410233038617
          0.6965511571504912 0.6843671888979076 0.6748225961124712 0.653884977963857 0.6202738178821088 0.6004399739693858
          0.58006983006983 0.5368567468567469 0.4730490405117271 0.5746470439694422 0.6679927155582839 0.6795327431282476
          0.7003324210254835 0.7015412928456406 0.6934514266922702 0.6877686495722583 0.6629802436438492 0.6342918363926767
          0.6109919576267214 0.5927454867486717 0.5742244777572824 0.5249168884342132 0.45819981555275674 0.4031856747108613
          0.5914642403945327 0.6750548624509393 0.692797664981107 0.7000389135393881 0.6936987471640936 0.6881395256122251
          0.6683086249963903 0.6278061740159981 0.596658944871901 0.5744225237896123 0.5555785837949326 0.5094884266483013
          0.4372164081964195 0.38702415843959964 0.3429404936461388 0.6024481508669978 0.6769720965945607 0.692035683274814
          0.6920847478436722 0.6880898374118347 0.6724441170140032 0.631030054426834 0.5913571660407104 0.5667322475801754
          0.5251274559753838 0.47804268420706775 0.4254071390342092 0.37503049655568316 0.3367633374689826 0.28194624794969936
          0.6184594861125753 0.6891878593438432 0.6931336640189116 0.6829311922788919 0.660851278659149 0.6207664556972148
          0.5737971690689486 0.5399736396571839 0.5064567449740698 0.4470245105418353 0.3973859473859474 0.35568087826152345
          0.309159170802316 0.2599549267704857 0.19331726534998533 0.636825488271041 0.6954339061496624 0.6892466742026013
          0.6549227681084918 0.6082794802306998 0.5628686848199044 0.5175007076415526 0.4654043805452256 0.4199095022624434
          0.36749014742373376 0.32977667493796525 0.28831644025739156 0.21684915541998792 0.14578376016670025 0.08840768108009488
          0.6402785337332006 0.6913877463851437 0.659682129117853 0.5920164213592658 0.5388082920977658 0.4859444234444234
          0.4325190367223818 0.3773285815319266 0.3295542344722673 0.28879544129411927 0.24659807193177605 0.19331726534998533
          0.1219801504703378 0.05360623781676413 0.018518518518518517 
        </DataArray>
      </CellData>
      <Points>
        <DataArray type="Float32" Name="Points" NumberOfComponents="3" format="ascii" RangeMin="0.0" RangeMax="1.0">
          0.0 0.0 0.13283208020050125 0.06666666666666667 0.0 0.13283208020050125
          0.13333333333333333 0.0 0.13283208020050125 0.20000000000000004 0.0 0.13283208020050125
          0.26666666666666666 0.0 0.13283208020050125 0.3333333333333333 0.0 0.13283208020050125
          0.4000000000000001 0.0 0.13283208020050125 0.46666666666666673 0.0 0.13283208020050125
          0.5333333333333333 0.0 0.13283208020050125 0.6 0.0 0.13283208020050125
          0.6666666666666666 0.0 0.13283208020050125 0.7333333333333334 0.0 0.13283208020050125
          0.8000000000000002 0.0 0.13283208020050125 0.8666666666666667 0.0 0.13283208020050125
          0.9333333333333335 0.0 0.13283208020050125 1.0 0.0 0.13283208020050125
          0.0 0.06666666666666667 0.17931034482758623 0.06666666666666667 0.06666666666666667 0.39382239382239376
          0.13333333333333333 0.06666666666666667 0.4672897196261682 0.20000000000000004 0.06666666666666667 0.5050505050505051
          0.26666666666666666 0.06666666666666667 0.5405405405405406 0.3333333333333333 0.06666666666666667 0.5444444444444444
          0.4000000000000001 0.06666666666666667 0.5632183908045977 0.46666666666666673 0.06666666666666667 0.5903614457831325
          0.5333333333333333 0.06666666666666667 0.6086956521739131 0.6 0.06666666666666667 0.6114649681528663
          0.6666666666666666 0.06666666666666667 0.6274509803921569 0.7333333333333334 0.06666666666666667 0.6357615894039735
          0.8000000000000002 0.06666666666666667 0.6486486486486487 0.8666666666666667 0.06666666666666667 0.6573426573426574
          0.9333333333333335 0.06666666666666667 0.6617647058823528 1.0 0.06666666666666667 0.6615384615384615
          0.0 0.13333333333333333 0.2212765957446809 0.06666666666666667 0.13333333333333333 0.5050505050505051
          0.13333333333333333 0.13333333333333333 0.547486033519553 0.20000000000000004 0.13333333333333333 0.5697674418604651
          0.26666666666666666 0.13333333333333333 0.6086956521739131 0.3333333333333333 0.13333333333333333 0.6193548387096774
          0.4000000000000001 0.13333333333333333 0.6357615894039735 0.46666666666666673 0.13333333333333333 0.6442953020134228
          0.5333333333333333 0.13333333333333333 0.6527777777777779 0.6 0.13333333333333333 0.6666666666666666
          0.6666666666666666 0.13333333333333333 0.6617647058823528 0.7333333333333334 0.13333333333333333 0.682170542635659
          0.8000000000000002 0.13333333333333333 0.6666666666666667 0.8666666666666667 0.13333333333333333 0.6833333333333333
          0.9333333333333335 0.13333333333333333 0.7008547008547009 1.0 0.13333333333333333 0.706896551724138
          0.0 0.20000000000000004 0.26130653266331655 0.06666666666666667 0.20000000000000004 0.547486033519553
          0.13333333333333333 0.20000000000000004 0.593939393939394 0.20000000000000004 0.20000000000000004 0.6193548387096774
          0.26666666666666666 0.20000000000000004 0.6357615894039735 0.3333333333333333 0.20000000000000004 0.6438356164383562
          0.4000000000000001 0.20000000000000004 0.6619718309859155 0.46666666666666673 0.20000000000000004 0.6666666666666667
          0.5333333333333333 0.20000000000000004 0.6718750000000001 0.6 0.20000000000000004 0.6666666666666667
          0.6666666666666666 0.20000000000000004 0.6721311475409837 0.7333333333333334 0.20000000000000004 0.7008547008547009
          0.8000000000000002 0.20000000000000004 0.7008547008547009 0.8666666666666667 0.20000000000000004 0.719298245614035
          0.9333333333333335 0.20000000000000004 0.7155963302752294 1.0 0.20000000000000004 0.7169811320754716
          0.0 0.26666666666666666 0.29714285714285715 0.06666666666666667 0.26666666666666666 0.5764705882352941
          0.13333333333333333 0.26666666666666666 0.6274509803921569 0.20000000000000004 0.26666666666666666 0.6442953020134228
          0.26666666666666666 0.26666666666666666 0.6619718309859155 0.3333333333333333 0.26666666666666666 0.6666666666666667
          0.4000000000000001 0.26666666666666666 0.676923076923077 0.46666666666666673 0.26666666666666666 0.6666666666666667
          0.5333333333333333 0.26666666666666666 0.6721311475409837 0.6 0.26666666666666666 0.6949152542372882
          0.6666666666666666 0.26666666666666666 0.7008547008547009 0.7333333333333334 0.26666666666666666 0.719298245614035
          0.8000000000000002 0.26666666666666666 0.7155963302752294 0.8666666666666667 0.26666666666666666 0.6981132075471698
          0.9333333333333335 0.26666666666666666 0.6990291262135921 1.0 0.26666666666666666 0.6666666666666666
          0.0 0.3333333333333333 0.33015873015873015 0.06666666666666667 0.3333333333333333 0.6086956521739131
          0.13333333333333333 0.3333333333333333 0.6442953020134228 0.20000000000000004 0.3333333333333333 0.6619718309859155
          0.26666666666666666 0.3333333333333333 0.6716417910447762 0.3333333333333333 0.3333333333333333 0.6614173228346457
          0.4000000000000001 0.3333333333333333 0.6774193548387097 0.46666666666666673 0.3333333333333333 0.6833333333333333
          0.5333333333333333 0.3333333333333333 0.7008547008547009 0.6 0.3333333333333333 0.719298245614035
          0.6666666666666666 0.3333333333333333 0.7387387387387387 0.7333333333333334 0.3333333333333333 0.6981132075471698
          0.8000000000000002 0.3333333333333333 0.6923076923076923 0.8666666666666667 0.3333333333333333 0.6732673267326733
          0.9333333333333335 0.3333333333333333 0.6526315789473685 1.0 0.3333333333333333 0.6190476190476191
          0.0 0.4000000000000001 0.3598615916955017 0.06666666666666667 0.4000000000000001 0.6315789473684211
          0.13333333333333333 0.4000000000000001 0.6619718309859155 0.20000000000000004 0.4000000000000001 0.6818181818181819
          0.26666666666666666 0.4000000000000001 0.6614173228346457 0.3333333333333333 0.4000000000000001 0.6666666666666666
          0.4000000000000001 0.4000000000000001 0.6949152542372882 0.46666666666666673 0.4000000000000001 0.7008547008547009
          0.5333333333333333 0.4000000000000001 0.7321428571428573 0.6 0.4000000000000001 0.6915887850467289
          0.6666666666666666 0.4000000000000001 0.7047619047619047 0.7333333333333334 0.4000000000000001 0.6862745098039216
          0.8000000000000002 0.4000000000000001 0.66 0.8666666666666667 0.4000000000000001 0.6373626373626373
          0.9333333333333335 0.4000000000000001 0.6190476190476191 1.0 0.4000000000000001 0.5822784810126581
          0.0 0.46666666666666673 0.3952569169960474 0.06666666666666667 0.46666666666666673 0.6351351351351352
          0.13333333333333333 0.46666666666666673 0.6666666666666667 0.20000000000000004 0.46666666666666673 0.65625
          0.26666666666666666 0.46666666666666673 0.6666666666666666 0.3333333333333333 0.46666666666666673 0.6949152542372882
          0.4000000000000001 0.46666666666666673 0.706896551724138 0.46666666666666673 0.46666666666666673 0.7155963302752294
          0.5333333333333333 0.46666666666666673 0.6981132075471698 0.6 0.46666666666666673 0.6923076923076923
          0.6666666666666666 0.46666666666666673 0.6862745098039216 0.7333333333333334 0.46666666666666673 0.6804123711340205
          0.8000000000000002 0.46666666666666673 0.6206896551724137 0.8666666666666667 0.46666666666666673 0.6265060240963856
          0.9333333333333335 0.46666666666666673 0.5822784810126581 1.0 0.46666666666666673 0.5599999999999999
          0.0 0.5333333333333333 0.43478260869565216 0.06666666666666667 0.5333333333333333 0.647887323943662
          0.13333333333333333 0.5333333333333333 0.6615384615384615 0.20000000000000004 0.5333333333333333 0.656
          0.26666666666666666 0.5333333333333333 0.6949152542372882 0.3333333333333333 0.5333333333333333 0.7130434782608696
          0.4000000000000001 0.5333333333333333 0.7037037037037037 0.46666666666666673 0.5333333333333333 0.6981132075471698
          0.5333333333333333 0.5333333333333333 0.6796116504854369 0.6 0.5333333333333333 0.6868686868686867
          0.6666666666666666 0.5333333333333333 0.6595744680851064 0.7333333333333334 0.5333333333333333 0.611764705882353
          0.8000000000000002 0.5333333333333333 0.5925925925925926 0.8666666666666667 0.5333333333333333 0.5897435897435898
          0.9333333333333335 0.5333333333333333 0.5599999999999999 1.0 0.5333333333333333 0.4571428571428572
          0.0 0.6 0.4651162790697674 0.06666666666666667 0.6 0.6666666666666667
          0.13333333333333333 0.6 0.6614173228346457 0.20000000000000004 0.6 0.6776859504132231
          0.26666666666666666 0.6 0.7130434782608696 0.3333333333333333 0.6 0.7037037037037037
          0.4000000000000001 0.6 0.6981132075471698 0.46666666666666673 0.6 0.6862745098039216
          0.5333333333333333 0.6 0.673469387755102 0.6 0.6 0.6593406593406593
          0.6666666666666666 0.6 0.6097560975609757 0.7333333333333334 0.6 0.6
          0.8000000000000002 0.6 0.5974025974025975 0.8666666666666667 0.6 0.5405405405405405
          0.9333333333333335 0.6 0.4571428571428572 1.0 0.6 0.41791044776119407
          0.0 0.6666666666666666 0.49504950495049505 0.06666666666666667 0.6666666666666666 0.6717557251908397
          0.13333333333333333 0.6666666666666666 0.6721311475409837 0.20000000000000004 0.6666666666666666 0.706896551724138
          0.26666666666666666 0.6666666666666666 0.7037037037037037 0.3333333333333333 0.6666666666666666 0.6857142857142857
          0.4000000000000001 0.6666666666666666 0.6862745098039216 0.46666666666666673 0.6666666666666666 0.6804123711340205
          0.5333333333333333 0.6666666666666666 0.611764705882353 0.6 0.6666666666666666 0.5925925925925926
          0.6666666666666666 0.6666666666666666 0.5822784810126581 0.7333333333333334 0.6666666666666666 0.5789473684210527
          0.8000000000000002 0.6666666666666666 0.5205479452054794 0.8666666666666667 0.6666666666666666 0.4411764705882353
          0.9333333333333335 0.6666666666666666 0.393939393939394 1.0 0.6666666666666666 0.34375000000000006
          0.0 0.7333333333333334 0.5376344086021505 0.06666666666666667 0.7333333333333334 0.6614173228346457
          0.13333333333333333 0.7333333333333334 0.6949152542372882 0.20000000000000004 0.7333333333333334 0.6972477064220183
          0.26666666666666666 0.7333333333333334 0.6923076923076923 0.3333333333333333 0.7333333333333334 0.693069306930693
          0.4000000000000001 0.7333333333333334 0.6875 0.46666666666666673 0.7333333333333334 0.6190476190476191
          0.5333333333333333 0.7333333333333334 0.6 0.6 0.7333333333333334 0.5822784810126581
          0.6666666666666666 0.7333333333333334 0.5405405405405405 0.7333333333333334 0.7333333333333334 0.5205479452054794
          0.8000000000000002 0.7333333333333334 0.41791044776119407 0.8666666666666667 0.7333333333333334 0.36923076923076925
          0.9333333333333335 0.7333333333333334 0.34375000000000006 1.0 0.7333333333333334 0.2903225806451613
          0.0 0.8000000000000002 0.5494505494505495 0.06666666666666667 0.8000000000000002 0.6612903225806451
          0.13333333333333333 0.8000000000000002 0.6902654867256638 0.20000000000000004 0.8000000000000002 0.6857142857142857
          0.26666666666666666 0.8000000000000002 0.693069306930693 0.3333333333333333 0.8000000000000002 0.6739130434782609
          0.4000000000000001 0.8000000000000002 0.6352941176470588 0.46666666666666673 0.8000000000000002 0.5822784810126581
          0.5333333333333333 0.8000000000000002 0.5641025641025641 0.6 0.8000000000000002 0.5205479452054794
          0.6666666666666666 0.8000000000000002 0.4571428571428572 0.7333333333333334 0.8000000000000002 0.393939393939394
          0.8000000000000002 0.8000000000000002 0.36923076923076925 0.8666666666666667 0.8000000000000002 0.34375000000000006
          0.9333333333333335 0.8000000000000002 0.2903225806451613 1.0 0.8000000000000002 0.2033898305084746
          0.0 0.8666666666666667 0.5681818181818181 0.06666666666666667 0.8666666666666667 0.6949152542372882
          0.13333333333333333 0.8666666666666667 0.7102803738317758 0.20000000000000004 0.8666666666666667 0.6862745098039216
          0.26666666666666666 0.8666666666666667 0.6666666666666667 0.3333333333333333 0.8666666666666667 0.6097560975609757
          0.4000000000000001 0.8666666666666667 0.5641025641025641 0.46666666666666673 0.8666666666666667 0.5135135135135135
          0.5333333333333333 0.8666666666666667 0.4999999999999999 0.6 0.8666666666666667 0.4411764705882353
          0.6666666666666666 0.8666666666666667 0.36923076923076925 0.7333333333333334 0.8666666666666667 0.36923076923076925
          0.8000000000000002 0.8666666666666667 0.2903225806451613 0.8666666666666667 0.8666666666666667 0.23333333333333334
          0.9333333333333335 0.8666666666666667 0.1724137931034483 1.0 0.8666666666666667 0.10714285714285715
          0.0 0.9333333333333335 0.593939393939394 0.06666666666666667 0.9333333333333335 0.6902654867256638
          0.13333333333333333 0.9333333333333335 0.6862745098039216 0.20000000000000004 0.9333333333333335 0.6741573033707865
          0.26666666666666666 0.9333333333333335 0.5925925925925926 0.3333333333333333 0.9333333333333335 0.5641025641025641
          0.4000000000000001 0.9333333333333335 0.5135135135135135 0.46666666666666673 0.9333333333333335 0.4788732394366197
          0.5333333333333333 0.9333333333333335 0.36923076923076925 0.6 0.9333333333333335 0.36923076923076925
          0.6666666666666666 0.9333333333333335 0.2903225806451613 0.7333333333333334 0.9333333333333335 0.2903225806451613
          0.8000000000000002 0.9333333333333335 0.2033898305084746 0.8666666666666667 0.9333333333333335 0.14035087719298245
          0.9333333333333335 0.9333333333333335 0.037037037037037035 1.0 0.9333333333333335 0.037037037037037035
          0.0 1.0 0.5911949685534591 0.06666666666666667 1.0 0.6857142857142857
          0.13333333333333333 1.0 0.7032967032967034 0.20000000000000004 1.0 0.5750000000000001
          0.26666666666666666 1.0 0.5263157894736843 0.3333333333333333 1.0 0.47222222222222215
          0.4000000000000001 1.0 0.393939393939394 0.46666666666666673 1.0 0.34375000000000006
          0.5333333333333333 1.0 0.3174603174603175 0.6 1.0 0.26229508196721313
          0.6666666666666666 1.0 0.23333333333333334 0.7333333333333334 1.0 0.1724137931034483
          0.8000000000000002 1.0 0.10714285714285715 0.8666666666666667 1.0 0.037037037037037035
          0.9333333333333335 1.0 0.0 1.0 1.0 0.0
        </DataArray>
      </Points>
      <Verts>
        <DataArray type="Int64" Name="connectivity" format="ascii" RangeMin="0" RangeMax="255">
        </DataArray>
        <DataArray type="Int64" Name="offsets" format="ascii" RangeMin="1" RangeMax="256">
        </DataArray>
      </Verts>
      <Lines>
        <DataArray type="Int64" Name="connectivity" format="ascii" RangeMin="0" RangeMax="224">
        </DataArray>
        <DataArray type="Int64" Name="offsets" format="ascii" RangeMin="1" RangeMax="225">
        </DataArray>
      </Lines>
      <Strips>
        <DataArray type="Int64" Name="connectivity" format="ascii" RangeMin="0" RangeMax="224">
        </DataArray>
        <DataArray type="Int64" Name="offsets" format="ascii" RangeMin="1" RangeMax="225">
        </DataArray>
      </Strips>
      <Polys>
        <DataArray type="Int64" Name="connectivity" format="ascii" RangeMin="0" RangeMax="224">
          0 1 17 16 1 2 18 17
          2 3 19 18 3 4 20 19
          4 5 21 20 5 6 22 21
          6 7 23 22 7 8 24 23
          8 9 25 24 9 10 26 25
          10 11 27 26 11 12 28 27
          12 13 29 28 13 14 30 29
          14 15 31 30 16 17 33 32
          17 18 34 33 18 19 35 34
          19 20 36 35 20 21 37 36
          21 22 38 37 22 23 39 38
          23 24 40 39 24 25 41 40
          25 26 42 41 26 27 43 42
          27 28 44 43 28 29 45 44
          29 30 46 45 30 31 47 46
          32 33 49 48 33 34 50 49
          34 35 51 50 35 36 52 51
          36 37 53 52 37 38 54 53
          38 39 55 54 39 40 56 55
          40 41 57 56 41 42 58 57
          42 43 59 58 43 44 60 59
          44 45 61 60 45 46 62 61
          46 47 63 62 48 49 65 64
          49 50 66 65 50 51 67 66
          51 52 68 67 52 53 69 68
          53 54 70 69 54 55 71 70
          55 56 72 71 56 57 73 72
          57 58 74 73 58 59 75 74
          59 60 76 75 60 61 77 76
          61 62 78 77 62 63 79 78
          64 65 81 80 65 66 82 81
          66 67 83 82 67 68 84 83
          68 69 85 84 69 70 86 85
          70 71 87 86 71 72 88 87
          72 73 89 88 73 74 90 89
          74 75 91 90 75 76 92 91
          76 77 93 92 77 78 94 93
          78 79 95 94 80 81 97 96
          81 82 98 97 82 83 99 98
          83 84 100 99 84 85 101 100
          85 86 102 101 86 87 103 102
          87 88 104 103 88 89 105 104
          89 90 106 105 90 91 107 106
          91 92 108 107 92 93 109 108
          93 94 110 109 94 95 111 110
          96 97 113 112 97 98 114 113
          98 99 115 114 99 100 116 115
          100 101 117 116 101 102 118 117
          102 103 119 118 103 104 120 119
          104 105 121 120 105 106 122 121
          106 107 123 122 107 108 124 123
          108 109 125 124 109 110 126 125
          110 111 127 126 112 113 129 128
          113 114 130 129 114 115 131 130
          115 116 132 131 116 117 133 132
          117 118 134 133 118 119 135 134
          119 120 136 135 120 121 137 136
          121 122 138 137 122 123 139 138
          123 124 140 139 124 125 141 140
          125 126 142 141 126 127 143 142
          128 129 145 144 129 130 146 145
          130 131 147 146 131 132 148 147
          132 133 149 148 133 134 150 149
          134 135 151 150 135 136 152 151
          136 137 153 152 137 138 154 153
          138 139 155 154 139 140 156 155
          140 141 157 156 141 142 158 157
          142 143 159 158 144 145 161 160
          145 146 162 161 146 147 163 162
          147 148 164 163 148 149 165 164
          149 150 166 165 150 151 167 166
          151 152 168 167 152 153 169 168
          153 154 170 169 154 155 171 170
          155 156 172 171 156 157 173 172
          157 158 174 173 158 159 175 174
          160 161 177 176 161 162 178 177
          162 163 179 178 163 164 180 179
          164 165 181 180 165 166 182 181
          166 167 183 182 167 168 184 183
          168 169 185 184 169 170 186 185
          170 171 187 186 171 172 188 187
          172 173 189 188 173 174 190 189
          174 175 191 190 176 177 193 192
          177 178 194 193 178 179 195 194
          179 180 196 195 180 181 197 196
          181 182 198 197 182 183 199 198
          183 184 200 199 184 185 201 200
          185 186 202 201 186 187 203 202
          187 188 204 203 188 189 205 204
          189 190 206 205 190 191 207 206
          192 193 209 208 193 194 210 209
          194 195 211 210 195 196 212 211
          196 197 213 212 197 198 214 213
          198 199 215 214 199 200 216 215
          200 201 217 216 201 202 218 217
          202 203 219 218 203 204 220 219
          204 205 221 220 205 206 222 221
          206 207 223 222 208 209 225 224
          209 210 226 225 210 211 227 226
          211 212 228 227 212 213 229 228
          213 214 230 229 214 215 231 230
          215 216 232 231 216 217 233 232